
Host: adabbott

Timers On : Thu Aug  8 14:52:11 2019
Timers Off: Thu Aug  8 14:52:11 2019

Wall Time:        0.41 seconds

                                                       Time (seconds)
Module                                       User      System        Wall        Calls

--------------------------------------------------------------------------------------

**************************************************************************************

Host: adabbott

Timers On : Thu Aug  8 15:05:24 2019
Timers Off: Thu Aug  8 15:05:25 2019

Wall Time:        1.32 seconds

                                                       Time (seconds)
Module                                       User      System        Wall        Calls

--------------------------------------------------------------------------------------

**************************************************************************************

Host: adabbott

Timers On : Thu Aug  8 15:05:43 2019
Timers Off: Thu Aug  8 15:05:45 2019

Wall Time:        1.36 seconds

                                                       Time (seconds)
Module                                       User      System        Wall        Calls

--------------------------------------------------------------------------------------

**************************************************************************************
